
 Primary working directories    : /tmp
 Secondary working directories  : /tmp
 Wavefunction directory         : /users/tnorthey/wfu/
 Main file repository           : /tmp/

 SHA1      : c1fa73a58b863d85f8aab6c87b7659dc5dec4ab7
 NAME      : 2015.1.19
 ARCHNAME  : linux/x86_64
 FC        : /usr/bin/gfortran
 BLASLIB   : -L/gpfs/runtime/opt/intel/2017.0/mkl/lib/intel64 -lmkl_gf_ilp64 -lmkl_gnu_thread -lmkl_core
 id        : brownengin

 Nodes                       nprocs
 node1164.oscar.ccv.brown.edu    1

 Using customized tuning parameters: mindgm=1; mindgv=20; mindgc=4; mindgr=1; noblas=0; minvec=7
 default implementation of scratch files=df  

                                                                                 !!! nmm
 
 basis=6-311G**
 
 geometry={
    18
  HF-SCF000/6-311G**  ENERGY=-325.11027937
  C          1.1612887063       -0.2072115203       -1.1406002652
  C          1.1933134020        0.1946266494        0.3239258464
  H          2.0684850727       -0.2397959456        0.7978485976
  N          0.0000000000       -0.2869899214        0.9945642357
  H          1.2814731449        1.2850756065        0.3954080916
  C         -1.1933134020        0.1946266494        0.3239258464
  C          0.0000000000        0.0189833800        2.4062013793
  H          0.0000000000        1.0958451060        2.6078098777
  H          0.8770560288       -0.4126030426        2.8767430518
  H         -0.8770560288       -0.4126030426        2.8767430518
  C         -1.1612887063       -0.2072115203       -1.1406002652
  H         -1.2160709709       -1.2927022343       -1.2214031931
  O          0.0000000000        0.2604104991       -1.7646973596
  H         -2.0008832098        0.2216442753       -1.6725510177
  H          1.2160709709       -1.2927022343       -1.2214031931
  H          2.0008832098        0.2216442753       -1.6725510177
  H         -1.2814731449        1.2850756065        0.3954080916
  H         -2.0684850727       -0.2397959456        0.7978485976
           }
 
 hf
 optg
 freq
 

 Variables initialized (889), CPU time= 0.00 sec
 Commands  initialized (702), CPU time= 0.01 sec, 572 directives.
 Default parameters read. Elapsed time= 0.05 sec

 Checking input...
 Passed
1


                                         ***  PROGRAM SYSTEM MOLPRO  ***
                                       Copyright, TTI GmbH Stuttgart, 2015
                                    Version 2015.1 linked Dec 11 2017 15:18:43


 **********************************************************************************************************************************
 LABEL *                                                                                 
  64 bit serial version                                                                  DATE: 09-Sep-22          TIME: 16:56:24  
 **********************************************************************************************************************************

 SHA1:             c1fa73a58b863d85f8aab6c87b7659dc5dec4ab7
 **********************************************************************************************************************************

 Variable memory set to    8000000 words,  buffer space   230000 words

 SETTING BASIS          =    6-311G**

Geometry recognized as XYZ



 Recomputing integrals since basis changed


 Using spherical harmonics

 Library entry C      S 6-311G               selected for orbital group  1
 Library entry C      P 6-311G               selected for orbital group  1
 Library entry C      D 6-311G*              selected for orbital group  1
 Library entry H      S 6-311G               selected for orbital group  2
 Library entry H      P 6-311G**             selected for orbital group  2
 Library entry N      S 6-311G               selected for orbital group  3
 Library entry N      P 6-311G               selected for orbital group  3
 Library entry N      D 6-311G*              selected for orbital group  3
 Library entry O      S 6-311G               selected for orbital group  7
 Library entry O      P 6-311G               selected for orbital group  7
 Library entry O      D 6-311G*              selected for orbital group  7


 PROGRAM * SEWARD (Integral evaluation for generally contracted gaussian basis sets)     Author: Roland Lindh, 1990

 Geometry written to block  1 of record 700


 Point group  Cs  



 ATOMIC COORDINATES

 NR  ATOM    CHARGE       X              Y              Z

   1  C       6.00    2.194517606   -0.391573023   -2.155422119
   2  C       6.00   -2.194517606   -0.391573023   -2.155422119
   3  C       6.00    2.255035511    0.367791064    0.612131134
   4  C       6.00   -2.255035511    0.367791064    0.612131134
   5  H       1.00    3.908870280   -0.453148663    1.507715338
   6  H       1.00   -3.908870280   -0.453148663    1.507715338
   7  N       7.00    0.000000000   -0.542332352    1.879454019
   8  H       1.00    2.421633280    2.428440946    0.747213001
   9  H       1.00   -2.421633280    2.428440946    0.747213001
  10  C       6.00    0.000000000    0.035873389    4.547061607
  11  H       1.00    0.000000000    2.070847125    4.928046454
  12  H       1.00    1.657395690   -0.779706749    5.436256499
  13  H       1.00   -1.657395690   -0.779706749    5.436256499
  14  H       1.00   -2.298041083   -2.442853183   -2.308117523
  15  H       1.00    2.298041083   -2.442853183   -2.308117523
  16  O       8.00    0.000000000    0.492104523   -3.334794702
  17  H       1.00   -3.781121274    0.418846977   -3.160663353
  18  H       1.00    3.781121274    0.418846977   -3.160663353

 Bond lengths in Bohr (Angstrom)

  1- 3  2.870478574   1-15  2.059559004   1-16  2.643428308   1-18  2.045629906   2- 4  2.870478574
       ( 1.518991846)       ( 1.089871690)       ( 1.398842020)       ( 1.082500728)       ( 1.518991846)

  2-14  2.059559004   2-16  2.643428308   2-17  2.045629906   3- 5  2.052116602   3- 7  2.742192021
       ( 1.089871690)       ( 1.398842020)       ( 1.082500728)       ( 1.085933340)       ( 1.451105525)

  3- 8  2.071781809   4- 6  2.052116602   4- 7  2.742192021   4- 9  2.071781809   7-10  2.729551635
       ( 1.096339719)       ( 1.085933340)       ( 1.451105525)       ( 1.096339719)       ( 1.444416521)

 10-11  2.070330302  10-12  2.050072923  10-13  2.050072923
       ( 1.095571615)       ( 1.084851872)       ( 1.084851872)

 Bond angles

  1- 3- 5  109.38615594   1- 3- 7  109.90413192   1- 3- 8  109.12799302   1-16- 2  112.23417737

  2- 4- 6  109.38615594   2- 4- 7  109.90413192   2- 4- 9  109.12799302   3- 1-15  109.50572348

  3- 1-16  111.05249590   3- 1-18  110.64842700   3- 7- 4  110.64102094   3- 7-10  112.41810889

  4- 2-14  109.50572348   4- 2-16  111.05249590   4- 2-17  110.64842700   4- 7-10  112.41810889

  5-3-7  109.16415297   5-3-8  107.73620246   6-4-7  109.16415297   6-4-9  107.73620246

  7- 3- 8  111.47574202   7- 4- 9  111.47574202   7-10-11  112.83379664   7-10-12  109.85384552

  7-10-13  109.85384552  11-10-12  108.13269191  11-10-13  108.13269191  12-10-13  107.89088697

 14- 2-16  109.97436041  14- 2-17  108.61213957  15- 1-16  109.97436041  15- 1-18  108.61213957

 16- 1-18  106.99039181  16- 2-17  106.99039181

 NUCLEAR CHARGE:                   56
 NUMBER OF PRIMITIVE AOS:         312
 NUMBER OF SYMMETRY AOS:          305
 NUMBER OF CONTRACTIONS:          192   ( 110A'  +  82A"  )
 NUMBER OF CORE ORBITALS:           7   (   5A'  +   2A"  )
 NUMBER OF VALENCE ORBITALS:       39   (  23A'  +  16A"  )


 NUCLEAR REPULSION ENERGY  341.51016445


 Eigenvalues of metric

         1 0.251E-02 0.424E-02 0.678E-02 0.114E-01 0.141E-01 0.189E-01 0.194E-01 0.225E-01
         2 0.809E-03 0.497E-02 0.824E-02 0.118E-01 0.165E-01 0.213E-01 0.221E-01 0.242E-01


 Contracted 2-electron integrals neglected if value below      1.0D-11
 AO integral compression algorithm  1   Integral accuracy      1.0D-11

     306.446 MB (compressed) written to integral file ( 40.0%)


 NUMBER OF SORTED TWO-ELECTRON INTEGRALS:   86756416.     BUFFER LENGTH:  32768
 NUMBER OF SEGMENTS:  12  SEGMENT LENGTH:    7257718      RECORD LENGTH: 524288

 Memory used in sort:       7.81 MW

 SORT1 READ    95914568. AND WROTE    71923860. INTEGRALS IN    209 RECORDS. CPU TIME:     1.11 SEC, REAL TIME:     1.60 SEC
 SORT2 READ    71923860. AND WROTE    86756416. INTEGRALS IN   1169 RECORDS. CPU TIME:     1.63 SEC, REAL TIME:     1.99 SEC

 FILE SIZES:   FILE 1:   326.8 MBYTE,  FILE 4:   876.6 MBYTE,   TOTAL:   1203.4 MBYTE

 OPERATOR DM      FOR CENTER  0  COORDINATES:    0.000000    0.000000    0.000000


 **********************************************************************************************************************************
 DATASETS  * FILE   NREC   LENGTH (MB)   RECORD NAMES
              1      19      306.16       500      610      700      900      950      970     1000      129      960     1100   
                                          VAR    BASINP    GEOM    SYMINP    ZMAT    AOBASIS   BASIS     P2S    ABASIS      S 
                                         1400     1410     1200     1210     1080     1600     1650     1300     1700   
                                           T        V       H0       H01     AOSYM     SMH    MOLCAS    ERIS     OPER   

 PROGRAMS   *        TOTAL       INT
 CPU TIMES  *         8.89      8.82
 REAL TIME  *        10.13 SEC
 DISK USED  *         1.20 GB      
 **********************************************************************************************************************************


 PROGRAM * RHF-SCF (CLOSED SHELL)       Authors: W. Meyer, H.-J. Werner


 NUMBER OF ELECTRONS:      28+   28-
 CONVERGENCE THRESHOLDS:    1.00E-06 (Density)    1.12E-07 (Energy)
 MAX. NUMBER OF ITERATIONS:       60
 INTERPOLATION TYPE:            DIIS
 INTERPOLATION STEPS:              2 (START)      1 (STEP)
 LEVEL SHIFTS:                  0.00 (CLOSED)  0.00 (OPEN) 



 Orbital guess generated from atomic densities. Full valence occupancy:   28  18

 Molecular orbital dump at record        2100.2

 Initial occupancy:  18  10

 ITERATION    DDIFF          GRAD             ENERGY        2-EL.EN.            DIPOLE MOMENTS         DIIS   ORB.
    1      0.000D+00      0.000D+00      -325.03097568    906.061966    0.00000   -0.03187    0.80728    0    start
    2      0.000D+00      0.492D-02      -325.10178088    903.691758    0.00000   -0.02939    0.51722    1    diag
    3      0.370D-02      0.175D-02      -325.10869917    905.091983    0.00000   -0.07075    0.58016    2    diag
    4      0.137D-02      0.841D-03      -325.11022598    904.615329    0.00000   -0.04610    0.54779    3    diag
    5      0.576D-03      0.111D-03      -325.11027642    904.604922    0.00000   -0.05325    0.55231    4    diag
    6      0.148D-03      0.269D-04      -325.11027915    904.611283    0.00000   -0.05197    0.55068    5    diag
    7      0.379D-04      0.752D-05      -325.11027935    904.605907    0.00000   -0.05213    0.55135    6    diag
    8      0.895D-05      0.201D-05      -325.11027937    904.607257    0.00000   -0.05213    0.55138    7    diag
    9      0.292D-05      0.808D-06      -325.11027937    904.606850    0.00000   -0.05218    0.55141    8    diag
   10      0.109D-05      0.226D-06      -325.11027937    904.606915    0.00000   -0.05216    0.55142    9    orth
   11      0.374D-06      0.587D-07      -325.11027937    904.606894    0.00000   -0.05217    0.55142    0    orth

 Final occupancy:  18  10

 !RHF STATE 1.1 Energy               -325.110279371941
 Nuclear energy                       341.51016445
 One-electron energy                -1118.92389064
 Two-electron energy                  452.30344681
 Virial quotient                       -0.99998076
 !RHF STATE 1.1 Dipole moment           0.00000000    -0.05216535     0.55141777
 Dipole moment /Debye                   0.00000000    -0.13258240     1.40147237

 Orbital energies:

         1.1          2.1          3.1          4.1          5.1          6.1          7.1          8.1          9.1         10.1
    -20.542928   -15.542369   -11.265956   -11.244137   -11.240952    -1.385409    -1.233228    -0.981759    -0.869172    -0.774628

        11.1         12.1         13.1         14.1         15.1         16.1         17.1         18.1         19.1         20.1
     -0.684265    -0.646145    -0.629912    -0.573273    -0.540293    -0.453792    -0.409778    -0.355336     0.157907     0.176277

         1.2          2.2          3.2          4.2          5.2          6.2          7.2          8.2          9.2         10.2
    -11.265976   -11.244150    -1.039341    -0.883830    -0.644628    -0.634779    -0.557608    -0.527656    -0.501924    -0.485274

        11.2         12.2
      0.179119     0.216372

 HOMO     18.1    -0.355336 =      -9.6692eV
 LUMO     19.1     0.157907 =       4.2969eV
 LUMO-HOMO         0.513243 =      13.9661eV


 **********************************************************************************************************************************
 DATASETS  * FILE   NREC   LENGTH (MB)   RECORD NAMES
              1      19      306.16       500      610      700      900      950      970     1000      129      960     1100   
                                          VAR    BASINP    GEOM    SYMINP    ZMAT    AOBASIS   BASIS     P2S    ABASIS      S 
                                         1400     1410     1200     1210     1080     1600     1650     1300     1700   
                                           T        V       H0       H01     AOSYM     SMH    MOLCAS    ERIS     OPER   

              2       4        3.45       700     1000      520     2100   
                                         GEOM     BASIS   MCVARS     RHF  

 PROGRAMS   *        TOTAL        HF       INT
 CPU TIMES  *        14.49      5.59      8.82
 REAL TIME  *        16.37 SEC
 DISK USED  *         1.20 GB      
 **********************************************************************************************************************************


 PROGRAM * OPT (Geometry optimization)     Authors: F. Eckert and H.-J. Werner


 BFGS update of hessian

 *** Long output written to logfile /gpfs/home/tnorthey/molpro/nmm/nmm_opt_freq.log ***


 Geometry optimization using default procedure for command HF-SCF

 Geometry written to block  1 of record 700

 Making model hessian for cartesian coordinates

 Entering Rational Function Geometry Optimization

 ITER.   ENERGY(OLD)    ENERGY(NEW)      DE          GRADMAX     GRADNORM    GRADRMS     STEPMAX     STEPLEN     STEPRMS   CPU-time
   1  -325.11027937  -325.11027940    -0.00000003  0.00004520  0.00008262  0.00000172  0.00060144  0.00083854  0.00019765     30.72

 END OF GEOMETRY OPTIMIZATION.

 Current geometry (xyz format, in Angstrom)

   18
 HF-SCF000/6-311G**  ENERGY=-325.11027940
 C          1.1613134883       -0.2072198746       -1.1405926757
 C          1.1933142673        0.1946858697        0.3239051589
 H          2.0685135541       -0.2396530183        0.7978626563
 N          0.0000000000       -0.2870155504        0.9945419665
 H          1.2813332493        1.2851448655        0.3953312716
 C         -1.1933142673        0.1946858697        0.3239051589
 C          0.0000000000        0.0189044733        2.4062022349
 H          0.0000000000        1.0957606913        2.6078365928
 H          0.8770659015       -0.4127070712        2.8767217261
 H         -0.8770659015       -0.4127070712        2.8767217261
 C         -1.1613134883       -0.2072198746       -1.1405926757
 H         -1.2161315108       -1.2927206539       -1.2212824586
 O          0.0000000000        0.2603226525       -1.7647102363
 H         -2.0008960781        0.2216420697       -1.6725707795
 H          1.2161315108       -1.2927206539       -1.2212824586
 H          2.0008960781        0.2216420697       -1.6725707795
 H         -1.2813332493        1.2851448655        0.3953312716
 H         -2.0685135541       -0.2396530183        0.7978626563

 **********************************************************************************************************************************

 Geometry written to block  1 of record 700


 **********************************************************************************************************************************
 DATASETS  * FILE   NREC   LENGTH (MB)   RECORD NAMES
              1      19      306.16       500      610      700      900      950      970     1000      129      960     1100   
                                          VAR    BASINP    GEOM    SYMINP    ZMAT    AOBASIS   BASIS     P2S    ABASIS      S 
                                         1400     1410     1200     1210     1080     1600     1650     1300     1700   
                                           T        V       H0       H01     AOSYM     SMH    MOLCAS    ERIS     OPER   

              2       4        3.45       700     1000      520     2100   
                                         GEOM     BASIS   MCVARS     RHF  

 PROGRAMS   *        TOTAL      OPTG        HF       INT
 CPU TIMES  *        45.21     30.72      5.59      8.82
 REAL TIME  *        48.62 SEC
 DISK USED  *         1.21 GB      
 **********************************************************************************************************************************


 PROGRAM * HESSIAN

 Computing numerical hessian using default procedure for command HF-SCF

 Symmetry elements for unique displacements: X  

 Using no symmetry in wavefunction calculations

 Running default procedure: HF-SCF000


 Numerically approximating hessian using central gradient differences

 Task list generated. Total number of displacements:     62

    6 tasks completed, CPU=5m 58s Elapsed=5m 58s
   12 tasks completed, CPU=11m 53s Elapsed=11m 53s
   18 tasks completed, CPU=17m 27s Elapsed=17m 27s
   24 tasks completed, CPU=23m 16s Elapsed=23m 16s
   30 tasks completed, CPU=28m 52s Elapsed=28m 53s
   36 tasks completed, CPU=34m 39s Elapsed=34m 40s
   42 tasks completed, CPU=40m 15s Elapsed=40m 15s
   48 tasks completed, CPU=45m 49s Elapsed=45m 49s
   54 tasks completed, CPU=51m 33s Elapsed=51m 33s
   60 tasks completed, CPU=57m 13s Elapsed=57m 13s

 Numerical HF-SCF000 hessian completed. CPU-time:  3545.14 sec, Elapsed:  3545.55 sec

 HF-SCF hessian saved to record  5300.2

 PROGRAM * FREQUENCIES (Calculation of harmonuc vibrational spectra for HF-SCF)


 Permanent Dipole Moment [debye]
   1-  3    0.000000   -0.132302    1.401583

 Dipole Moment Norm    1.4078137 [debye]

 Dipole Moment Derivatives [debye/ang]
                   1             2             3             4             5             6             7             8
         1     3.7428244    -0.8454825     1.0316420     2.1771836     0.3972857    -0.7923407    -0.6659421     0.3984860
         2    -0.4433496     2.3318765    -0.0858024     0.3286319     2.2044652    -0.2495137     0.2575908     0.0240324
         3     0.5092035     0.0196791     2.2354863    -0.5511357    -0.3670200     0.6924082    -0.2886285     0.2801300
                   9            10            11            12            13            14            15            16
         1    -0.4984129    -3.3005397     0.0000000     0.0000000    -0.1005117    -0.4507500     0.1289236     2.1771836
         2     0.1759682     0.0000000    -3.4072643    -0.2159355     0.1647641    -1.2144205    -0.2320080    -0.3286319
         3    -0.0237596     0.0000000    -0.0750405    -3.8976618     0.2169171    -0.0506893    -0.1200298     0.5511357
                  17            18            19            20            21            22            23            24
         1    -0.3972857     0.7923407     0.9827427    -0.0000000    -0.0000000     0.1710991    -0.0000000     0.0000000
         2     2.2044652    -0.2495137     0.0000000     2.2740267     0.3551105     0.0000000    -1.2098808     0.1418437
         3    -0.3670200     0.6924082     0.0000000     0.3178648     3.0205058     0.0000000    -0.6724645    -0.3211165
                  25            26            27            28            29            30            31            32
         1    -0.4927471     0.4174924    -0.2607956    -0.4927471    -0.4174924     0.2607956     3.7428244     0.8454825
         2     0.4096812     0.0572244     0.0777817    -0.4096812     0.0572244     0.0777817     0.4433496     2.3318765
         3    -0.6450982     0.1589879    -0.1608349     0.6450982     0.1589879    -0.1608349    -0.5092035     0.0196791
                  33            34            35            36            37            38            39            40
         1    -1.0316420    -0.0555544    -0.3506622     0.1975948    -5.7821177     0.0000000     0.0000000    -0.6418433
         2    -0.0858024     0.1696539    -1.0472224    -0.0962956     0.0000000    -2.5687124     0.2473448     0.2216775
         3     2.2354863     0.1058691    -0.2628420    -0.0120127     0.0000000     0.2688694    -3.5796725    -0.3952911
                  41            42            43            44            45            46            47            48
         1     0.4147628    -0.4194831    -0.0555544     0.3506622    -0.1975948    -0.6418433    -0.4147628     0.4194831
         2     0.1000408     0.1458130    -0.1696539    -1.0472224    -0.0962956    -0.2216775     0.1000408     0.1458130
         3     0.3019384    -0.2227511    -0.1058691    -0.2628420    -0.0120127     0.3952911     0.3019384    -0.2227511
                  49            50            51            52            53            54
         1    -0.1005117     0.4507500    -0.1289236    -0.6659421    -0.3984860     0.4984129
         2    -0.1647641    -1.2144205    -0.2320080    -0.2575908     0.0240324     0.1759682
         3    -0.2169171    -0.0506893    -0.1200298     0.2886285     0.2801300    -0.0237596

 Projecting out rotations and translations

   Low Vibration      Wavenumber
        Nr             [1/cm] 
        1                0.00
        2                0.00
        3                0.00
        4                0.00
        5                0.00
        6                0.00

     Vibration        Wavenumber
        Nr             [1/cm] 
        1              172.62
        2              243.49
        3              276.04
        4              348.43
        5              383.20
        6              443.46
        7              460.70
        8              534.78
        9              667.97
       10              854.99
       11              936.35
       12              961.50
       13              985.42
       14             1108.63
       15             1132.89
       16             1165.40
       17             1191.67
       18             1207.95
       19             1272.73
       20             1279.18
       21             1287.63
       22             1332.94
       23             1368.05
       24             1429.90
       25             1438.73
       26             1452.99
       27             1486.41
       28             1530.37
       29             1541.10
       30             1568.71
       31             1587.18
       32             1609.85
       33             1610.29
       34             1620.21
       35             1627.38
       36             1630.34
       37             1638.08
       38             3068.91
       39             3073.01
       40             3087.42
       41             3142.28
       42             3151.38
       43             3195.54
       44             3199.71
       45             3206.01
       46             3235.51
       47             3242.16
       48             3245.67

 FREQUENCIES * CALCULATION OF NORMAL MODES FOR HF-SCF


 Atomic Coordinates

  Nr  Atom  Charge       X              Y              Z

   1   C     6.00    2.194564438   -0.391588811   -2.155407777
   2   C     6.00    2.255037146    0.367902974    0.612092041
   3   H     1.00    3.908924102   -0.452878570    1.507741905
   4   N     7.00    0.000000000   -0.542380784    1.879411936
   5   H     1.00    2.421368915    2.428571826    0.747067832
   6   C     6.00   -2.255037146    0.367902974    0.612092041
   7   C     6.00    0.000000000    0.035724277    4.547063224
   8   H     1.00    0.000000000    2.070687605    4.928096938
   9   H     1.00    1.657414347   -0.779903334    5.436216199
  10   H     1.00   -1.657414347   -0.779903334    5.436216199
  11   C     6.00   -2.194564438   -0.391588811   -2.155407777
  12   H     1.00   -2.298155487   -2.442887991   -2.307889367
  13   O     8.00    0.000000000    0.491938517   -3.334819036
  14   H     1.00   -3.781145591    0.418842809   -3.160700697
  15   H     1.00    2.298155487   -2.442887991   -2.307889367
  16   H     1.00    3.781145591    0.418842809   -3.160700697
  17   H     1.00   -2.421368915    2.428571826    0.747067832
  18   H     1.00   -3.908924102   -0.452878570    1.507741905

 Frequencies dumped to record   5400.2

 Gradient norm at reference geometry: 0.82622D-04

 Molecule is not in standard orientation!
 Symmetry information for normal modes not available!

 Normal Modes

                              1 A         2 A         3 A         4 A         5 A  
 Wavenumbers [cm-1]          172.62      243.49      276.04      348.43      383.20
 Intensities [km/mol]          3.35        0.02        1.04       17.81        0.01
 Intensities [relative]        1.81        0.01        0.56        9.62        0.01
           GX1             -0.01382     0.01290    -0.00766    -0.03103     0.01972
           GY1              0.00112     0.06330    -0.06400    -0.06608     0.01061
           GZ1             -0.02022    -0.01608     0.03618    -0.00213     0.03228
           GX2              0.01446    -0.00372    -0.03401     0.04643    -0.08168
           GY2             -0.10163    -0.03200     0.07982    -0.00077    -0.02704
           GZ2              0.00562     0.01488    -0.01580    -0.02406     0.02562
           GX3             -0.00476    -0.02312     0.00787    -0.00820    -0.11047
           GY3             -0.17605    -0.09490     0.23158    -0.08981    -0.03659
           GZ3             -0.02595    -0.00528     0.04526    -0.00318     0.06790
           GX4              0.00000    -0.02543     0.01022     0.00000    -0.09534
           GY4             -0.05748     0.00000     0.00000     0.12918     0.00000
           GZ4              0.01920    -0.00000    -0.00000    -0.01859    -0.00000
           GX5              0.08026     0.04301    -0.16652     0.18364    -0.07088
           GY5             -0.11078    -0.04033     0.09784    -0.00867    -0.02837
           GZ5              0.06052     0.08783    -0.12962    -0.07918     0.04621
           GX6             -0.01446    -0.00372    -0.03401    -0.04643    -0.08168
           GY6             -0.10163     0.03200    -0.07982    -0.00077     0.02704
           GZ6              0.00562    -0.01488     0.01580    -0.02406    -0.02562
           GX7              0.00000     0.01556     0.04739    -0.00000     0.14084
           GY7              0.13033    -0.00000    -0.00000    -0.03848    -0.00000
           GZ7             -0.01826    -0.00000     0.00000     0.00852    -0.00000
           GX8              0.00000     0.49779     0.33530    -0.00000     0.12202
           GY8              0.16005    -0.00000    -0.00000    -0.06830    -0.00000
           GZ8             -0.17770     0.00000     0.00000     0.17159     0.00000
           GX9              0.00087    -0.21792    -0.08529    -0.00202     0.29137
           GY9              0.20012    -0.40750    -0.24303    -0.10826     0.06968
           GZ9              0.04388     0.06447     0.02643    -0.04995    -0.21729
           GX10            -0.00087    -0.21792    -0.08529     0.00202     0.29137
           GY10             0.20012     0.40750     0.24303    -0.10826    -0.06968
           GZ10             0.04388    -0.06447    -0.02643    -0.04995     0.21729
           GX11             0.01382     0.01290    -0.00766     0.03103     0.01972
           GY11             0.00112    -0.06330     0.06400    -0.06608    -0.01061
           GZ11            -0.02022     0.01608    -0.03618    -0.00213    -0.03228
           GX12             0.06399     0.10789    -0.11219     0.21486     0.06228
           GY12             0.00525    -0.07394     0.07751    -0.07889    -0.01545
           GZ12            -0.11269     0.09603    -0.15000     0.04613     0.00933
           GX13             0.00000    -0.02075     0.03726    -0.00000     0.03681
           GY13             0.10289    -0.00000    -0.00000     0.08503     0.00000
           GZ13             0.03289     0.00000    -0.00000     0.05683     0.00000
           GX14            -0.00367    -0.01950     0.03594    -0.01365     0.03620
           GY14             0.00539    -0.17155     0.19408    -0.22689    -0.06152
           GZ14             0.01135    -0.01970    -0.00054    -0.06021    -0.09855
           GX15            -0.06399     0.10789    -0.11219    -0.21486     0.06228
           GY15             0.00525     0.07394    -0.07751    -0.07889     0.01545
           GZ15            -0.11269    -0.09603     0.15000     0.04613    -0.00933
           GX16             0.00367    -0.01950     0.03594     0.01365     0.03620
           GY16             0.00539     0.17155    -0.19408    -0.22689     0.06152
           GZ16             0.01135     0.01970     0.00054    -0.06021     0.09855
           GX17            -0.08026     0.04301    -0.16652    -0.18364    -0.07088
           GY17            -0.11078     0.04033    -0.09784    -0.00867     0.02837
           GZ17             0.06052    -0.08783     0.12962    -0.07918    -0.04621
           GX18             0.00476    -0.02312     0.00787     0.00820    -0.11047
           GY18            -0.17605     0.09490    -0.23158    -0.08981     0.03659
           GZ18            -0.02595     0.00528    -0.04526    -0.00318    -0.06790

                              6 A         7 A         8 A         9 A        10 A  
 Wavenumbers [cm-1]          443.46      460.70      534.78      667.97      854.99
 Intensities [km/mol]          0.27        1.91        0.96        6.88       10.34
 Intensities [relative]        0.15        1.03        0.52        3.72        5.59
           GX1             -0.07142     0.02337    -0.06856     0.05519     0.05544
           GY1             -0.03304    -0.02532     0.03425    -0.03485     0.00707
           GZ1             -0.00976     0.04477     0.09516    -0.05539    -0.04592
           GX2             -0.07502     0.00113     0.04995    -0.00479     0.11452
           GY2              0.02422     0.03492     0.02413    -0.01886     0.04911
           GZ2             -0.01348    -0.00759     0.08779    -0.04887     0.00295
           GX3              0.01389     0.01452     0.03507     0.04054     0.11379
           GY3              0.18566     0.16333    -0.10619     0.17619     0.04398
           GZ3             -0.03191     0.08136     0.00103     0.04235     0.00475
           GX4             -0.00000    -0.00000     0.03881    -0.00000     0.00000
           GY4             -0.07357    -0.07491    -0.00000     0.01887    -0.09726
           GZ4              0.05674    -0.08697    -0.00000     0.03920     0.00588
           GX5             -0.23811    -0.15118     0.13888    -0.13542     0.06265
           GY5              0.04237     0.04914     0.00901     0.00557     0.03976
           GZ5             -0.09150    -0.05523     0.21209    -0.24400     0.08733
           GX6              0.07502    -0.00113     0.04995     0.00479    -0.11452
           GY6              0.02422     0.03492    -0.02413    -0.01886     0.04911
           GZ6             -0.01348    -0.00759    -0.08779    -0.04887     0.00295
           GX7              0.00000    -0.00000     0.03879     0.00000     0.00000
           GY7             -0.00119     0.00054     0.00000     0.00742     0.00155
           GZ7              0.05792    -0.12760    -0.00000     0.09130     0.08150
           GX8             -0.00000    -0.00000     0.06412    -0.00000    -0.00000
           GY8              0.00849     0.01934     0.00000    -0.00472     0.01860
           GZ8             -0.00051    -0.22457    -0.00000     0.14845    -0.03218
           GX9              0.00083     0.00133     0.05129    -0.00265     0.00090
           GY9              0.02121     0.04536    -0.00837    -0.02182     0.05775
           GZ9              0.07662    -0.09075    -0.02929     0.07039     0.13412
           GX10            -0.00083    -0.00133     0.05129     0.00265    -0.00090
           GY10             0.02121     0.04536     0.00837    -0.02182     0.05775
           GZ10             0.07662    -0.09075     0.02929     0.07039     0.13412
           GX11             0.07142    -0.02337    -0.06856    -0.05519    -0.05544
           GY11            -0.03304    -0.02532    -0.03425    -0.03485     0.00707
           GZ11            -0.00976     0.04477    -0.09516    -0.05539    -0.04592
           GX12             0.21972     0.02847    -0.13778    -0.17616     0.06115
           GY12            -0.04461    -0.02980    -0.02291    -0.01474    -0.00984
           GZ12             0.04824     0.08316    -0.20789    -0.23491     0.10947
           GX13            -0.00000     0.00000    -0.04341     0.00000     0.00000
           GY13             0.07433     0.02994     0.00000     0.02124     0.00212
           GZ13            -0.05993     0.13056     0.00000     0.09347    -0.01431
           GX14            -0.01404    -0.00545    -0.05403     0.01777    -0.03227
           GY14            -0.17535    -0.07231     0.07836     0.15336    -0.16068
           GZ14             0.01203    -0.02096    -0.03165    -0.02396    -0.22051
           GX15            -0.21972    -0.02847    -0.13778     0.17616    -0.06115
           GY15            -0.04461    -0.02980     0.02291    -0.01474    -0.00984
           GZ15             0.04824     0.08316     0.20789    -0.23491     0.10947
           GX16             0.01404     0.00545    -0.05403    -0.01777     0.03227
           GY16            -0.17535    -0.07231    -0.07836     0.15336    -0.16068
           GZ16             0.01203    -0.02096     0.03165    -0.02396    -0.22051
           GX17             0.23811     0.15118     0.13888     0.13542    -0.06265
           GY17             0.04237     0.04914    -0.00901     0.00557     0.03976
           GZ17            -0.09150    -0.05523    -0.21209    -0.24400     0.08733
           GX18            -0.01389    -0.01452     0.03507    -0.04054    -0.11379
           GY18             0.18566     0.16333     0.10619     0.17619     0.04398
           GZ18            -0.03191     0.08136    -0.00103     0.04235     0.00475

                             11 A        12 A        13 A        14 A        15 A  
 Wavenumbers [cm-1]          936.35      961.50      985.42     1108.63     1132.89
 Intensities [km/mol]          0.06       29.49       14.91       32.92        4.09
 Intensities [relative]        0.03       15.93        8.05       17.78        2.21
           GX1             -0.03346    -0.08784     0.03625     0.08206    -0.06587
           GY1             -0.04418     0.04417    -0.02861     0.00669     0.00280
           GZ1              0.06306     0.00416    -0.07007     0.08706     0.05876
           GX2              0.01548    -0.01080     0.05330    -0.01271     0.11251
           GY2             -0.05606     0.01953     0.01536    -0.01644    -0.01783
           GZ2              0.04613    -0.08297     0.09315    -0.08219    -0.00464
           GX3              0.11457     0.03422     0.00391     0.00640     0.23828
           GY3              0.21188    -0.11397     0.13894    -0.06816     0.17623
           GZ3              0.10933    -0.28943     0.29509    -0.16350    -0.05701
           GX4              0.06502    -0.00000    -0.05764    -0.00000     0.00000
           GY4             -0.00000    -0.03774    -0.00000    -0.02066    -0.00953
           GZ4             -0.00000    -0.00705    -0.00000    -0.04357     0.03414
           GX5             -0.15923     0.07150    -0.06902     0.04715    -0.00238
           GY5             -0.01914     0.00111     0.02791    -0.02484     0.00549
           GZ5             -0.20565     0.03266     0.05089    -0.10107    -0.23495
           GX6              0.01548     0.01080     0.05330     0.01271    -0.11251
           GY6              0.05606     0.01953    -0.01536    -0.01644    -0.01783
           GZ6             -0.04613    -0.08297    -0.09315    -0.08219    -0.00464
           GX7              0.01473    -0.00000    -0.01724     0.00000     0.00000
           GY7              0.00000     0.00310     0.00000     0.01351    -0.01350
           GZ7             -0.00000     0.05253     0.00000     0.05868    -0.04145
           GX8             -0.02209     0.00000     0.07164    -0.00000    -0.00000
           GY8             -0.00000     0.00656     0.00000     0.00487    -0.00803
           GZ8              0.00000     0.01597    -0.00000     0.07475    -0.05395
           GX9             -0.00817     0.00225     0.05890    -0.00206    -0.00363
           GY9              0.01607     0.01891    -0.01715     0.00058     0.00287
           GZ9              0.05944     0.06446    -0.15821     0.05130    -0.01570
           GX10            -0.00817    -0.00225     0.05890     0.00206     0.00363
           GY10            -0.01607     0.01891     0.01715     0.00058     0.00287
           GZ10            -0.05944     0.06446     0.15821     0.05130    -0.01570
           GX11            -0.03346     0.08784     0.03625    -0.08206     0.06587
           GY11             0.04418     0.04417     0.02861     0.00669     0.00280
           GZ11            -0.06306     0.00416     0.07007     0.08706     0.05876
           GX12             0.13660     0.02106    -0.02880    -0.04655     0.00039
           GY12             0.01136     0.03607     0.02939     0.00459     0.02219
           GZ12             0.20606     0.08471     0.08024     0.16991    -0.10759
           GX13            -0.03806     0.00000    -0.06509     0.00000    -0.00000
           GY13            -0.00000    -0.06511     0.00000     0.04001    -0.00094
           GZ13             0.00000     0.10560     0.00000    -0.04100    -0.04630
           GX14            -0.09603     0.13764    -0.04805    -0.20105     0.05923
           GY14            -0.23371     0.05605     0.06517    -0.05289     0.13049
           GZ14            -0.19254    -0.06335     0.23030     0.22655     0.17449
           GX15             0.13660    -0.02106    -0.02880     0.04655    -0.00039
           GY15            -0.01136     0.03607    -0.02939     0.00459     0.02219
           GZ15            -0.20606     0.08471    -0.08024     0.16991    -0.10759
           GX16            -0.09603    -0.13764    -0.04805     0.20105    -0.05923
           GY16             0.23371     0.05605    -0.06517    -0.05289     0.13049
           GZ16             0.19254    -0.06335    -0.23030     0.22655     0.17449
           GX17            -0.15923    -0.07150    -0.06902    -0.04715     0.00238
           GY17             0.01914     0.00111    -0.02791    -0.02484     0.00549
           GZ17             0.20565     0.03266    -0.05089    -0.10107    -0.23495
           GX18             0.11457    -0.03422     0.00391    -0.00640    -0.23828
           GY18            -0.21188    -0.11397    -0.13894    -0.06816     0.17623
           GZ18            -0.10933    -0.28943    -0.29509    -0.16350    -0.05701

                             16 A        17 A        18 A        19 A        20 A  
 Wavenumbers [cm-1]         1165.40     1191.67     1207.95     1272.73     1279.18
 Intensities [km/mol]          4.95        1.34        7.49       46.32      131.97
 Intensities [relative]        2.67        0.72        4.05       25.02       71.28
           GX1              0.02609    -0.00353     0.01472     0.03136    -0.09602
           GY1              0.00471     0.09401     0.06212    -0.05059    -0.00261
           GZ1             -0.02975    -0.00273    -0.00166    -0.01934    -0.07847
           GX2             -0.06591     0.02188     0.01280    -0.00857    -0.01469
           GY2             -0.02238    -0.09311    -0.06330     0.05260     0.02105
           GZ2              0.04359    -0.00782    -0.00808    -0.00567     0.05446
           GX3             -0.11423     0.17655     0.08580     0.10762     0.05645
           GY3             -0.01937     0.19101     0.09810    -0.05719     0.02347
           GZ3              0.13878    -0.03597     0.00377    -0.30657    -0.06852
           GX4              0.06743    -0.01400    -0.00000    -0.00000     0.04416
           GY4              0.00000     0.00000    -0.00470    -0.02228     0.00000
           GZ4             -0.00000     0.00000     0.02958     0.14796     0.00000
           GX5             -0.08364    -0.28923    -0.19253     0.06720    -0.06537
           GY5             -0.02156    -0.06339    -0.04979     0.02842     0.02239
           GZ5              0.14022    -0.05771     0.01058     0.15186     0.17867
           GX6             -0.06591     0.02188    -0.01280     0.00857    -0.01469
           GY6              0.02238     0.09311    -0.06330     0.05260    -0.02105
           GZ6             -0.04359     0.00782    -0.00808    -0.00567    -0.05446
           GX7              0.09932    -0.01121     0.00000     0.00000    -0.01183
           GY7             -0.00000    -0.00000     0.08776     0.00507    -0.00000
           GZ7              0.00000     0.00000    -0.03522    -0.09529    -0.00000
           GX8             -0.19002     0.00837    -0.00000    -0.00000     0.04081
           GY8              0.00000    -0.00000    -0.00723    -0.01220     0.00000
           GZ8             -0.00000    -0.00000     0.47014     0.03466    -0.00000
           GX9             -0.10319     0.00829    -0.04815    -0.01098     0.01780
           GY9              0.06155     0.00210    -0.21904    -0.07979     0.00064
           GZ9              0.43832    -0.03619    -0.22626    -0.15253    -0.05425
           GX10            -0.10319     0.00829     0.04815     0.01098     0.01780
           GY10            -0.06155    -0.00210    -0.21904    -0.07979    -0.00064
           GZ10            -0.43832     0.03619    -0.22626    -0.15253     0.05425
           GX11             0.02609    -0.00353    -0.01472    -0.03136    -0.09602
           GY11            -0.00471    -0.09401     0.06212    -0.05059     0.00261
           GZ11             0.02975     0.00273    -0.00166    -0.01934     0.07847
           GX12            -0.06496    -0.23435     0.10908    -0.14047    -0.04912
           GY12             0.00414    -0.07108     0.04208    -0.04647     0.00022
           GZ12            -0.01480    -0.11014     0.13814    -0.00946     0.21043
           GX13            -0.02018     0.02114     0.00000    -0.00000     0.13896
           GY13             0.00000     0.00000    -0.02963     0.03218    -0.00000
           GZ13             0.00000     0.00000     0.01071     0.00985     0.00000
           GX14             0.03551     0.11227    -0.02163    -0.05664    -0.00018
           GY14             0.08013     0.16712    -0.10875     0.00627    -0.02046
           GZ14             0.08120     0.03306    -0.12593     0.05899    -0.07471
           GX15            -0.06496    -0.23435    -0.10908     0.14047    -0.04912
           GY15            -0.00414     0.07108     0.04208    -0.04647    -0.00022
           GZ15             0.01480     0.11014     0.13814    -0.00946    -0.21043
           GX16             0.03551     0.11227     0.02163     0.05664    -0.00018
           GY16            -0.08013    -0.16712    -0.10875     0.00627     0.02046
           GZ16            -0.08120    -0.03306    -0.12593     0.05899     0.07471
           GX17            -0.08364    -0.28923     0.19253    -0.06720    -0.06537
           GY17             0.02156     0.06339    -0.04979     0.02842    -0.02239
           GZ17            -0.14022     0.05771     0.01058     0.15186    -0.17867
           GX18            -0.11423     0.17655    -0.08580    -0.10762     0.05645
           GY18             0.01937    -0.19101     0.09810    -0.05719    -0.02347
           GZ18            -0.13878     0.03597     0.00377    -0.30657     0.06852

                             21 A        22 A        23 A        24 A        25 A  
 Wavenumbers [cm-1]         1287.63     1332.94     1368.05     1429.90     1438.73
 Intensities [km/mol]         19.13        7.05       11.51       23.42       48.01
 Intensities [relative]       10.34        3.81        6.22       12.65       25.93
           GX1             -0.03726     0.02942    -0.05955    -0.01550    -0.00406
           GY1             -0.05732    -0.05217     0.00979    -0.04209     0.01870
           GZ1              0.01253    -0.00175     0.01347    -0.00037    -0.00775
           GX2              0.01221    -0.02076     0.04968     0.01751    -0.05927
           GY2              0.05379    -0.01734    -0.01098    -0.03395    -0.03783
           GZ2              0.01390     0.00954    -0.03128     0.01016     0.00190
           GX3             -0.08105     0.19173    -0.03577     0.18763    -0.16392
           GY3             -0.06538     0.03827     0.01984     0.09856    -0.04800
           GZ3              0.07898    -0.31684     0.14116    -0.17272     0.18351
           GX4             -0.00000     0.01741    -0.08373     0.00000     0.14874
           GY4             -0.08748    -0.00000     0.00000     0.07176    -0.00000
           GZ4             -0.09081    -0.00000     0.00000    -0.07857     0.00000
           GX5              0.08947    -0.24362    -0.04946    -0.28971     0.02920
           GY5              0.03726    -0.02699    -0.00807    -0.02887    -0.02964
           GZ5              0.08245     0.32988    -0.04287     0.34511    -0.11016
           GX6             -0.01221    -0.02076     0.04968    -0.01751    -0.05927
           GY6              0.05379     0.01734     0.01098    -0.03395     0.03783
           GZ6              0.01390    -0.00954     0.03128     0.01016    -0.00190
           GX7              0.00000    -0.01628     0.04711    -0.00000    -0.07516
           GY7              0.09262     0.00000    -0.00000    -0.01082     0.00000
           GZ7              0.03904     0.00000    -0.00000     0.03155     0.00000
           GX8             -0.00000     0.02640    -0.11314     0.00000     0.20689
           GY8              0.00915     0.00000     0.00000     0.00156     0.00000
           GZ8              0.42596     0.00000    -0.00000     0.01353     0.00000
           GX9             -0.05022     0.01149    -0.03996     0.02017     0.05825
           GY9             -0.16384     0.00105     0.00225     0.06931     0.02888
           GZ9             -0.09960    -0.05170     0.15957     0.06607    -0.21035
           GX10             0.05022     0.01149    -0.03996    -0.02017     0.05825
           GY10            -0.16384    -0.00105    -0.00225     0.06931    -0.02888
           GZ10            -0.09960     0.05170    -0.15957     0.06607     0.21035
           GX11             0.03726     0.02942    -0.05955     0.01550    -0.00406
           GY11            -0.05732     0.05217    -0.00979    -0.04209    -0.01870
           GZ11             0.01253     0.00175    -0.01347    -0.00037     0.00775
           GX12            -0.09523     0.24228     0.18746    -0.18631     0.08039
           GY12            -0.03704     0.06054    -0.00206    -0.04432    -0.00230
           GZ12            -0.13251    -0.18603    -0.17522     0.13120    -0.20828
           GX13             0.00000    -0.03096     0.08777     0.00000     0.02230
           GY13             0.02533     0.00000     0.00000     0.03942    -0.00000
           GZ13            -0.01951     0.00000     0.00000    -0.01437     0.00000
           GX14             0.07677    -0.09653    -0.28353     0.08666    -0.11527
           GY14             0.12142    -0.04569    -0.09779     0.06375    -0.01925
           GZ14             0.09602     0.11461     0.26403    -0.02100     0.17494
           GX15             0.09523     0.24228     0.18746     0.18631     0.08039
           GY15            -0.03704    -0.06054     0.00206    -0.04432     0.00230
           GZ15            -0.13251     0.18603     0.17522     0.13120     0.20828
           GX16            -0.07677    -0.09653    -0.28353    -0.08666    -0.11527
           GY16             0.12142     0.04569     0.09779     0.06375     0.01925
           GZ16             0.09602    -0.11461    -0.26403    -0.02100    -0.17494
           GX17            -0.08947    -0.24362    -0.04946     0.28971     0.02920
           GY17             0.03726     0.02699     0.00807    -0.02887     0.02964
           GZ17             0.08245    -0.32988     0.04287     0.34511     0.11016
           GX18             0.08105     0.19173    -0.03577    -0.18763    -0.16392
           GY18            -0.06538    -0.03827    -0.01984     0.09856     0.04800
           GZ18             0.07898     0.31684    -0.14116    -0.17272    -0.18351

                             26 A        27 A        28 A        29 A        30 A  
 Wavenumbers [cm-1]         1452.99     1486.41     1530.37     1541.10     1568.71
 Intensities [km/mol]          1.42        0.14       20.93       22.52        0.49
 Intensities [relative]        0.77        0.08       11.31       12.17        0.26
           GX1             -0.00873     0.03237     0.02255    -0.03499    -0.02296
           GY1             -0.01557     0.01178    -0.00462     0.00038     0.00296
           GZ1              0.02687     0.03818     0.07625    -0.04888    -0.08373
           GX2             -0.00313    -0.04659     0.01270     0.03725    -0.00783
           GY2             -0.01335     0.00413     0.00595    -0.00125    -0.00966
           GZ2             -0.01989     0.06369    -0.07332    -0.07170     0.06179
           GX3             -0.10931     0.13226    -0.11416    -0.14349     0.09574
           GY3             -0.05444    -0.02779    -0.03024     0.04891     0.04815
           GZ3              0.13176    -0.29157     0.11725     0.30790    -0.06283
           GX4              0.00000    -0.00867     0.02978    -0.00000    -0.00000
           GY4             -0.01478     0.00000    -0.00000    -0.00064    -0.00787
           GZ4              0.04677     0.00000     0.00000     0.05254    -0.03870
           GX5              0.06373     0.13125    -0.16756    -0.03148     0.10587
           GY5             -0.01340     0.01328    -0.01330    -0.01211     0.00592
           GZ5             -0.17596    -0.24919     0.29576     0.19686    -0.17777
           GX6              0.00313    -0.04659     0.01270    -0.03725     0.00783
           GY6             -0.01335    -0.00413    -0.00595    -0.00125    -0.00966
           GZ6             -0.01989    -0.06369     0.07332    -0.07170     0.06179
           GX7             -0.00000     0.00877    -0.02408     0.00000    -0.00000
           GY7             -0.00240    -0.00000    -0.00000    -0.01373     0.02099
           GZ7             -0.01519    -0.00000    -0.00000    -0.04619     0.06313
           GX8              0.00000    -0.01510     0.05957    -0.00000     0.00000
           GY8             -0.00197    -0.00000    -0.00000    -0.03211     0.05838
           GZ8             -0.03359     0.00000     0.00000     0.11767    -0.23230
           GX9             -0.00453    -0.00551     0.01414    -0.05915     0.07316
           GY9             -0.01895    -0.00464     0.01598     0.04774    -0.11321
           GZ9             -0.02130     0.02033    -0.05086     0.13558    -0.21113
           GX10             0.00453    -0.00551     0.01414     0.05915    -0.07316
           GY10            -0.01895     0.00464    -0.01598     0.04774    -0.11321
           GZ10            -0.02130    -0.02033     0.05086     0.13558    -0.21113
           GX11             0.00873     0.03237     0.02255     0.03499     0.02296
           GY11            -0.01557    -0.01178     0.00462     0.00038     0.00296
           GZ11             0.02687    -0.03818    -0.07625    -0.04888    -0.08373
           GX12            -0.26283    -0.11683    -0.20016    -0.03234    -0.07349
           GY12            -0.02537    -0.02208    -0.02527    -0.01097    -0.02380
           GZ12             0.34098     0.20109     0.33642     0.20614     0.30752
           GX13             0.00000     0.02811     0.01126    -0.00000    -0.00000
           GY13             0.05766     0.00000     0.00000    -0.00420     0.00051
           GZ13            -0.03799     0.00000     0.00000     0.01955     0.02581
           GX14             0.27677    -0.17918    -0.13482    -0.13695    -0.13623
           GY14             0.11726     0.03666    -0.00838     0.07246     0.05920
           GZ14            -0.27480     0.33394     0.15188     0.28646     0.20971
           GX15             0.26283    -0.11683    -0.20016     0.03234     0.07349
           GY15            -0.02537     0.02208     0.02527    -0.01097    -0.02380
           GZ15             0.34098    -0.20109    -0.33642     0.20614     0.30752
           GX16            -0.27677    -0.17918    -0.13482     0.13695     0.13623
           GY16             0.11726    -0.03666     0.00838     0.07246     0.05920
           GZ16            -0.27480    -0.33394    -0.15188     0.28646     0.20971
           GX17            -0.06373     0.13125    -0.16756     0.03148    -0.10587
           GY17            -0.01340    -0.01328     0.01330    -0.01211     0.00592
           GZ17            -0.17596     0.24919    -0.29576     0.19686    -0.17777
           GX18             0.10931     0.13226    -0.11416     0.14349    -0.09574
           GY18            -0.05444     0.02779     0.03024     0.04891     0.04815
           GZ18             0.13176     0.29157    -0.11725     0.30790    -0.06283

                             31 A        32 A        33 A        34 A        35 A  
 Wavenumbers [cm-1]         1587.18     1609.85     1610.29     1620.21     1627.38
 Intensities [km/mol]          1.73       14.53        0.91        0.06        5.20
 Intensities [relative]        0.93        7.85        0.49        0.03        2.81
           GX1             -0.00238    -0.00199     0.01410    -0.03463    -0.00001
           GY1              0.00475     0.00107    -0.00994     0.02496    -0.00286
           GZ1             -0.03377    -0.00767    -0.00745     0.03053    -0.00119
           GX2             -0.00740     0.01022    -0.03855    -0.01877    -0.00262
           GY2              0.00539     0.00809    -0.02532    -0.01321    -0.00315
           GZ2              0.06456     0.00893    -0.02588    -0.01624    -0.00665
           GX3              0.03834    -0.03334     0.12591     0.04134     0.06506
           GY3             -0.12896    -0.09401     0.38212     0.17865     0.13147
           GZ3             -0.15307    -0.00420     0.06840     0.05274    -0.00176
           GX4              0.00000    -0.00000    -0.00132     0.00534    -0.03579
           GY4             -0.00489    -0.01656     0.00000    -0.00000     0.00000
           GZ4             -0.03104     0.00268    -0.00000    -0.00000    -0.00000
           GX5             -0.04915    -0.06670     0.36804     0.17102     0.12844
           GY5              0.02290     0.01365    -0.05622    -0.02813    -0.01058
           GZ5             -0.23393    -0.07051     0.18787     0.08228     0.04857
           GX6              0.00740    -0.01022    -0.03855    -0.01877    -0.00262
           GY6              0.00539     0.00809     0.02532     0.01321     0.00315
           GZ6              0.06456     0.00893     0.02588     0.01624     0.00665
           GX7              0.00000     0.00000     0.01392     0.00057    -0.04603
           GY7             -0.00246    -0.05135     0.00000    -0.00000     0.00000
           GZ7             -0.09007     0.00354    -0.00000    -0.00000    -0.00000
           GX8             -0.00000    -0.00000    -0.19507    -0.04190     0.65150
           GY8             -0.08052    -0.09139     0.00000    -0.00000     0.00000
           GZ8              0.37094     0.38802    -0.00000     0.00000    -0.00000
           GX9             -0.19337     0.35802    -0.01617    -0.00240     0.04871
           GY9              0.08806     0.43662    -0.11690    -0.02738     0.40325
           GZ9              0.37759    -0.23510    -0.06365    -0.02130     0.23371
           GX10             0.19337    -0.35802    -0.01617    -0.00240     0.04871
           GY10             0.08806     0.43662     0.11690     0.02738    -0.40325
           GZ10             0.37759    -0.23510     0.06365     0.02130    -0.23371
           GX11             0.00238     0.00199     0.01410    -0.03463    -0.00001
           GY11             0.00475     0.00107     0.00994    -0.02496     0.00286
           GZ11            -0.03377    -0.00767     0.00745    -0.03053     0.00119
           GX12            -0.05025     0.00079    -0.17609     0.38845    -0.02028
           GY12            -0.00624    -0.00116     0.01999    -0.05003     0.00345
           GZ12             0.10309     0.02477    -0.08745     0.19357    -0.00870
           GX13             0.00000     0.00000     0.01203    -0.01318     0.00172
           GY13             0.00068    -0.00095     0.00000    -0.00000     0.00000
           GZ13             0.00998     0.00167    -0.00000     0.00000    -0.00000
           GX14            -0.04894    -0.01368    -0.08203     0.12298    -0.00706
           GY14            -0.01307     0.00999    -0.18137     0.40514    -0.02559
           GZ14             0.02694     0.02307    -0.00868     0.08255    -0.01222
           GX15             0.05025    -0.00079    -0.17609     0.38845    -0.02028
           GY15            -0.00624    -0.00116    -0.01999     0.05003    -0.00345
           GZ15             0.10309     0.02477     0.08745    -0.19357     0.00870
           GX16             0.04894     0.01368    -0.08203     0.12298    -0.00706
           GY16            -0.01307     0.00999     0.18137    -0.40514     0.02559
           GZ16             0.02694     0.02307     0.00868    -0.08255     0.01222
           GX17             0.04915     0.06670     0.36804     0.17102     0.12844
           GY17             0.02290     0.01365     0.05622     0.02813     0.01058
           GZ17            -0.23393    -0.07051    -0.18787    -0.08228    -0.04857
           GX18            -0.03834     0.03334     0.12591     0.04134     0.06506
           GY18            -0.12896    -0.09401    -0.38212    -0.17865    -0.13147
           GZ18            -0.15307    -0.00420    -0.06840    -0.05274     0.00176

                             36 A        37 A        38 A        39 A        40 A  
 Wavenumbers [cm-1]         1630.34     1638.08     3068.91     3073.01     3087.42
 Intensities [km/mol]         13.95        0.07       26.83       24.71      185.14
 Intensities [relative]        7.54        0.04       14.49       13.34      100.00
           GX1              0.03137     0.04787     0.00213    -0.00174     0.00208
           GY1             -0.01433    -0.02793     0.00430    -0.00308     0.00380
           GZ1             -0.00332    -0.00850     0.00065    -0.00039     0.00017
           GX2             -0.05058     0.02422    -0.00778     0.00642    -0.00527
           GY2             -0.02166     0.01688    -0.05116     0.03857    -0.03341
           GZ2             -0.00038     0.00176    -0.00900     0.00680    -0.00448
           GX3              0.14918    -0.06431     0.07032    -0.05840     0.03534
           GY3              0.34456    -0.21448    -0.05004     0.03789    -0.02464
           GZ3             -0.01139    -0.05142     0.03669    -0.02973     0.01675
           GX4              0.00000    -0.00000    -0.00279     0.00000     0.00000
           GY4             -0.01077     0.00850     0.00000     0.00099    -0.00298
           GZ4             -0.01412     0.01104    -0.00000    -0.00263    -0.00083
           GX5              0.36933    -0.22600     0.03979    -0.03341     0.03645
           GY5             -0.05514     0.03323     0.66889    -0.50687     0.43645
           GZ5              0.10175    -0.03376     0.04560    -0.03475     0.02328
           GX6              0.05058    -0.02422    -0.00778    -0.00642     0.00527
           GY6             -0.02166     0.01688     0.05116     0.03857    -0.03341
           GZ6             -0.00038     0.00176     0.00900     0.00680    -0.00448
           GX7             -0.00000     0.00000     0.00035    -0.00000     0.00000
           GY7             -0.00800     0.00512    -0.00000    -0.04106    -0.04829
           GZ7             -0.02480     0.00780    -0.00000    -0.01388    -0.01653
           GX8              0.00000    -0.00000    -0.00218     0.00000     0.00000
           GY8             -0.04429     0.02190     0.00000     0.60312     0.70478
           GZ8              0.19450    -0.09425     0.00000     0.09335     0.12477
           GX9              0.00732    -0.01819    -0.00331     0.08750     0.08899
           GY9              0.10838    -0.06198     0.00007    -0.05738    -0.05851
           GZ9              0.06856    -0.01916    -0.00308     0.04527     0.04890
           GX10            -0.00732     0.01819    -0.00331    -0.08750    -0.08899
           GY10             0.10838    -0.06198    -0.00007    -0.05738    -0.05851
           GZ10             0.06856    -0.01916     0.00308     0.04527     0.04890
           GX11            -0.03137    -0.04787     0.00213     0.00174    -0.00208
           GY11            -0.01433    -0.02793    -0.00430    -0.00308     0.00380
           GZ11            -0.00332    -0.00850    -0.00065    -0.00039     0.00017
           GX12             0.21864     0.39649     0.00274     0.00206    -0.00193
           GY12            -0.03033    -0.05106     0.04926     0.03558    -0.03898
           GZ12             0.08511     0.10544     0.00431     0.00304    -0.00163
           GX13            -0.00000     0.00000    -0.00062     0.00000     0.00000
           GY13            -0.00050    -0.00621    -0.00000    -0.00051     0.00047
           GZ13            -0.00315    -0.00570     0.00000     0.00021    -0.00023
           GX14             0.10632     0.12941    -0.01889    -0.01666     0.01839
           GY14             0.20998     0.37469     0.00897     0.00817    -0.00912
           GZ14            -0.02633     0.04850    -0.00787    -0.00759     0.00769
           GX15            -0.21864    -0.39649     0.00274    -0.00206     0.00193
           GY15            -0.03033    -0.05106    -0.04926     0.03558    -0.03898
           GZ15             0.08511     0.10544    -0.00431     0.00304    -0.00163
           GX16            -0.10632    -0.12941    -0.01889     0.01666    -0.01839
           GY16             0.20998     0.37469    -0.00897     0.00817    -0.00912
           GZ16            -0.02633     0.04850     0.00787    -0.00759     0.00769
           GX17            -0.36933     0.22600     0.03979     0.03341    -0.03645
           GY17            -0.05514     0.03323    -0.66889    -0.50687     0.43645
           GZ17             0.10175    -0.03376    -0.04560    -0.03475     0.02328
           GX18            -0.14918     0.06431     0.07032     0.05840    -0.03534
           GY18             0.34456    -0.21448     0.05004     0.03789    -0.02464
           GZ18            -0.01139    -0.05142    -0.03669    -0.02973     0.01675

                             41 A        42 A        43 A        44 A        45 A  
 Wavenumbers [cm-1]         3142.28     3151.38     3195.54     3199.71     3206.01
 Intensities [km/mol]         16.06      118.85       18.35       65.60       85.16
 Intensities [relative]        8.67       64.20        9.91       35.44       46.00
           GX1             -0.01039     0.01164     0.00099    -0.00068    -0.00004
           GY1              0.04794    -0.04782    -0.00484     0.00814     0.01028
           GZ1              0.01258    -0.01152    -0.00092     0.00145     0.00112
           GX2              0.00706    -0.00958     0.01864    -0.04303    -0.03982
           GY2             -0.00041     0.00163    -0.01339     0.02912     0.02535
           GZ2              0.00290    -0.00388     0.01080    -0.02454    -0.02145
           GX3             -0.07916     0.10393    -0.22810     0.52634     0.47244
           GY3              0.04117    -0.05382     0.11710    -0.26815    -0.24023
           GZ3             -0.03953     0.05193    -0.12831     0.29391     0.26254
           GX4              0.00023     0.00000    -0.00000    -0.00050     0.00000
           GY4             -0.00000     0.00033     0.00020     0.00000     0.00030
           GZ4             -0.00000    -0.00001     0.00022    -0.00000    -0.00032
           GX5              0.00043     0.00040     0.00536    -0.01128    -0.01128
           GY5             -0.03178     0.03052     0.04267    -0.08124    -0.06678
           GZ5             -0.00089     0.00085     0.00638    -0.01120    -0.00943
           GX6              0.00706     0.00958    -0.01864    -0.04303     0.03982
           GY6              0.00041     0.00163    -0.01339    -0.02912     0.02535
           GZ6             -0.00290    -0.00388     0.01080     0.02454    -0.02145
           GX7             -0.00107    -0.00000     0.00000     0.00901    -0.00000
           GY7             -0.00000    -0.00098     0.05400    -0.00000     0.02477
           GZ7             -0.00000    -0.00013    -0.03960     0.00000    -0.02010
           GX8              0.00028     0.00000    -0.00000     0.00222    -0.00000
           GY8              0.00000     0.01205    -0.17840     0.00000    -0.06824
           GZ8              0.00000     0.00338    -0.03451     0.00000    -0.01468
           GX9              0.00545    -0.00245     0.49230    -0.05353     0.24048
           GY9             -0.00285     0.00044    -0.23157     0.02843    -0.11474
           GZ9              0.00270    -0.00048     0.24797    -0.02837     0.12588
           GX10             0.00545     0.00245    -0.49230    -0.05353    -0.24048
           GY10             0.00285     0.00044    -0.23157    -0.02843    -0.11474
           GZ10            -0.00270    -0.00048     0.24797     0.02837     0.12588
           GX11            -0.01039    -0.01164    -0.00099    -0.00068     0.00004
           GY11            -0.04794    -0.04782    -0.00484    -0.00814     0.01028
           GZ11            -0.01258    -0.01152    -0.00092    -0.00145     0.00112
           GX12             0.01887     0.02693     0.00270     0.00304    -0.00532
           GY12             0.65189     0.64750     0.05677     0.09288    -0.11265
           GZ12             0.05068     0.04664     0.00489     0.00946    -0.01081
           GX13            -0.00299    -0.00000     0.00000     0.00021     0.00000
           GY13             0.00000    -0.00093     0.00012    -0.00000    -0.00024
           GZ13             0.00000     0.00147    -0.00001     0.00000     0.00012
           GX14             0.12251     0.12131     0.00506     0.00330     0.00645
           GY14            -0.07430    -0.06933    -0.00258    -0.00190    -0.00383
           GZ14             0.07577     0.07198     0.00305     0.00361     0.00241
           GX15             0.01887    -0.02693    -0.00270     0.00304     0.00532
           GY15            -0.65189     0.64750     0.05677    -0.09288    -0.11265
           GZ15            -0.05068     0.04664     0.00489    -0.00946    -0.01081
           GX16             0.12251    -0.12131    -0.00506     0.00330    -0.00645
           GY16             0.07430    -0.06933    -0.00258     0.00190    -0.00383
           GZ16            -0.07577     0.07198     0.00305    -0.00361     0.00241
           GX17             0.00043    -0.00040    -0.00536    -0.01128     0.01128
           GY17             0.03178     0.03052     0.04267     0.08124    -0.06678
           GZ17             0.00089     0.00085     0.00638     0.01120    -0.00943
           GX18            -0.07916    -0.10393     0.22810     0.52634    -0.47244
           GY18            -0.04117    -0.05382     0.11710     0.26815    -0.24023
           GZ18             0.03953     0.05193    -0.12831    -0.29391     0.26254

                             46 A        47 A        48 A  
 Wavenumbers [cm-1]         3235.51     3242.16     3245.67
 Intensities [km/mol]         50.81       75.99       42.32
 Intensities [relative]       27.44       41.04       22.86
           GX1              0.00101    -0.04129     0.04280
           GY1              0.00115    -0.03416     0.03324
           GZ1             -0.00085     0.02718    -0.02689
           GX2             -0.00404    -0.00175     0.00293
           GY2              0.00273    -0.00228     0.00241
           GZ2             -0.00258    -0.00153     0.00218
           GX3              0.05510     0.01841    -0.02999
           GY3             -0.02710    -0.00870     0.01436
           GZ3              0.02826     0.01190    -0.01877
           GX4             -0.00094     0.00040     0.00000
           GY4              0.00000     0.00000    -0.00016
           GZ4              0.00000    -0.00000     0.00033
           GX5             -0.00082     0.00187    -0.00272
           GY5             -0.00465     0.02992    -0.03570
           GZ5             -0.00150     0.00374    -0.00415
           GX6             -0.00404    -0.00175    -0.00293
           GY6             -0.00273     0.00228     0.00241
           GZ6              0.00258     0.00153     0.00218
           GX7             -0.08870    -0.00214     0.00000
           GY7             -0.00000    -0.00000    -0.00028
           GZ7             -0.00000     0.00000     0.00093
           GX8             -0.01947    -0.00069     0.00000
           GY8              0.00000     0.00000    -0.00559
           GZ8              0.00000     0.00000    -0.00212
           GX9              0.53688     0.01284    -0.00751
           GY9             -0.27433    -0.00665     0.00363
           GZ9              0.28316     0.00676    -0.00416
           GX10             0.53688     0.01284     0.00751
           GY10             0.27433     0.00665     0.00363
           GZ10            -0.28316    -0.00676    -0.00416
           GX11             0.00101    -0.04129    -0.04280
           GY11            -0.00115     0.03416     0.03324
           GZ11             0.00085    -0.02718    -0.02689
           GX12             0.00039    -0.00816    -0.00949
           GY12             0.00638    -0.14052    -0.13345
           GZ12             0.00045    -0.01630    -0.01568
           GX13             0.00029    -0.00074     0.00000
           GY13            -0.00000    -0.00000    -0.00034
           GZ13            -0.00000     0.00000     0.00052
           GX14            -0.01306     0.50409     0.50436
           GY14             0.00680    -0.26468    -0.26527
           GZ14            -0.00834     0.32697     0.32628
           GX15             0.00039    -0.00816     0.00949
           GY15            -0.00638     0.14052    -0.13345
           GZ15            -0.00045     0.01630    -0.01568
           GX16            -0.01306     0.50409    -0.50436
           GY16            -0.00680     0.26468    -0.26527
           GZ16             0.00834    -0.32697     0.32628
           GX17            -0.00082     0.00187     0.00272
           GY17             0.00465    -0.02992    -0.03570
           GZ17             0.00150    -0.00374    -0.00415
           GX18             0.05510     0.01841     0.02999
           GY18             0.02710     0.00870     0.01436
           GZ18            -0.02826    -0.01190    -0.01877


 Normal Modes of low/zero frequencies

                                  1           2           3           4           5
 Wavenumbers [cm-1]            0.00        0.00        0.00        0.00        0.00
 Intensities [km/mol]          0.00        0.00        0.00        0.00        0.00
 Intensities [relative]        0.00        0.00        0.00        0.00        0.00
           GX1              0.00000    -0.00000    -0.00000     0.00000     0.12152
           GY1              0.00320    -0.04396     0.00693     0.14056     0.01936
           GZ1             -0.03901     0.09930     0.03944     0.01916     0.03734
           GX2              0.06451    -0.01306     0.01808    -0.03587     0.06774
           GY2              0.01751    -0.03311     0.01681     0.14761     0.01990
           GZ2             -0.04434     0.09661     0.03633     0.01801     0.03836
           GX3              0.09323    -0.01503    -0.00500    -0.00192     0.05974
           GY3              0.03417    -0.02614    -0.02434     0.21971     0.03449
           GZ3             -0.08212     0.10663     0.04126     0.02138     0.06650
           GX4              0.10331    -0.01638    -0.00777     0.00145     0.05421
           GY4              0.00726    -0.03298     0.08326     0.05331    -0.00000
           GZ4              0.01733     0.09080     0.03807     0.01669    -0.00000
           GX5              0.05275    -0.01798     0.07387    -0.12408     0.04726
           GY5              0.01941    -0.03223     0.01286     0.15493     0.02136
           GZ5             -0.05888     0.08931     0.02791     0.01489     0.04119
           GX6              0.06451    -0.01306     0.01808    -0.03587     0.06774
           GY6             -0.01570    -0.04267     0.13917    -0.04508    -0.01990
           GZ6              0.06989     0.07795     0.03222     0.01243    -0.03836
           GX7              0.16662    -0.02864     0.00548    -0.02655     0.00372
           GY7              0.02062    -0.02264     0.09436     0.05761    -0.00000
           GZ7              0.01444     0.08856     0.03566     0.01575    -0.00000
           GX8              0.16129    -0.03453     0.06035    -0.11397    -0.02071
           GY8              0.02253    -0.02116     0.09595     0.05823    -0.00000
           GZ8              0.00424     0.08068     0.02719     0.01247    -0.00000
           GX9              0.19514    -0.03059    -0.01746     0.00719    -0.00421
           GY9              0.03728    -0.01568     0.05309     0.12986     0.01462
           GZ9             -0.02346     0.09858     0.04056     0.01912     0.02820
           GX10             0.19514    -0.03059    -0.01746     0.00719    -0.00421
           GY10             0.01287    -0.02270     0.14303    -0.01176    -0.01462
           GZ10             0.06050     0.08487     0.03754     0.01502    -0.02820
           GX11             0.00000     0.00000     0.00000     0.00000     0.12152
           GY11            -0.02911    -0.05326     0.12602    -0.04696    -0.01936
           GZ11             0.07216     0.08114     0.03544     0.01373    -0.03734
           GX12             0.01124     0.00498    -0.05552     0.08783     0.14221
           GY12            -0.03064    -0.05407     0.12820    -0.05163    -0.02028
           GZ12             0.08506     0.08866     0.04388     0.01691    -0.03910
           GX13            -0.03638     0.00301     0.02505    -0.03629     0.13379
           GY13            -0.01886    -0.05318     0.06157     0.04490    -0.00000
           GZ13             0.01215     0.08680     0.03376     0.01502    -0.00000
           GX14            -0.03143     0.00244     0.02290    -0.03338     0.13147
           GY14            -0.04583    -0.06052     0.16488    -0.11637    -0.03336
           GZ14             0.10829     0.07143     0.03062     0.01045    -0.06433
           GX15             0.01124     0.00498    -0.05552     0.08783     0.14221
           GY15             0.00320    -0.04433     0.00349     0.14474     0.02028
           GZ15            -0.03136     0.10768     0.04807     0.02260     0.03910
           GX16            -0.03143     0.00244     0.02290    -0.03338     0.13147
           GY16             0.00985    -0.04450    -0.04029     0.20672     0.03336
           GZ16            -0.08325     0.10272     0.03751     0.01982     0.06433
           GX17             0.05275    -0.01798     0.07387    -0.12408     0.04726
           GY17            -0.01624    -0.04250     0.14425    -0.05197    -0.02136
           GZ17             0.06378     0.06927     0.02350     0.00890    -0.04119
           GX18             0.09323    -0.01503    -0.00500    -0.00192     0.05974
           GY18            -0.02339    -0.04270     0.18777    -0.11429    -0.03449
           GZ18             0.11589     0.07428     0.03413     0.01170    -0.06650

                                  6
 Wavenumbers [cm-1]            0.00
 Intensities [km/mol]          0.00
 Intensities [relative]        0.00
           GX1             -0.00000
           GY1             -0.08277
           GZ1              0.00386
           GX2             -0.00819
           GY2              0.01515
           GZ2             -0.02284
           GX3             -0.01088
           GY3              0.04679
           GZ3              0.01112
           GX4             -0.01198
           GY4              0.06007
           GZ4              0.00268
           GX5             -0.00853
           GY5              0.01992
           GZ5             -0.09526
           GX6             -0.00819
           GY6              0.01530
           GZ6             -0.03623
           GX7             -0.01989
           GY7              0.15446
           GZ7             -0.01778
           GX8             -0.02095
           GY8              0.16794
           GZ8             -0.08978
           GX9             -0.02255
           GY9              0.18587
           GZ9              0.01600
           GX10            -0.02255
           GY10             0.18598
           GZ10             0.00616
           GX11            -0.00000
           GY11            -0.08263
           GZ11            -0.00917
           GX12             0.00039
           GY12            -0.08802
           GZ12             0.06310
           GX13             0.00353
           GY13            -0.12443
           GZ13            -0.03392
           GX14             0.00301
           GY14            -0.11815
           GZ14            -0.04256
           GX15             0.00039
           GY15            -0.08817
           GZ15             0.07675
           GX16             0.00301
           GY16            -0.11839
           GZ16            -0.02011
           GX17            -0.00853
           GY17             0.02008
           GZ17            -0.10964
           GX18            -0.01088
           GY18             0.04704
           GZ18            -0.01209


 Zero point energy:  0.17367641 [H]    38117.57 [1/CM]      455.99 [KJ/MOL]
 Frequency information read from record  5400.2

 HF/6-311G** energy=   -325.110279397484

        OPTG(HF)        HF-SCF  
   -325.11027940   -325.11027937
 **********************************************************************************************************************************
 Molpro calculation terminated
 Variable memory released
